 vasp.6.4.2 20Jul23 (build Sep 12 2023 18:06:52) complex                        
  
 executed on             LinuxGNU date 2025.02.17  16:06:52
 running   64 mpi-ranks, on    2 nodes
 distrk:  each k-point on   64 cores,    1 groups
 distr:  one band on NCORE=  16 cores,    4 groups


--------------------------------------------------------------------------------------------------------


 INCAR:
   SYSTEM = DOS
   ISTART = 1
   NSW = 0
   NELM = 200
   ISMEAR = -1
   ISPIN = 2
   IBRION = 2
   ISIF = 0
   ISYM = -1
   SYMPREC = 1E-3
   SIGMA = 0.027
   LREAL = AUTO
   EDIFF = 1E-6
   EDIFFG = -0.05
   ENCUT = 600
   NCORE = 16
   MAGMOM = 4 3 3 4 10*0
   LASPH = .TRUE.
   NWRITE = 2
   PREC = ACCURATE
   GGA = LIBXC
   LIBXC1 = 324
   LIBXC2 = 132
   IALGO = 58
   LWAVE = .TRUE.
   LORBIT = 10
   ICHARG = 11
   NEDOS = 3000
   EMIN = -9
   EMAX = 9

 POTCAR:    PAW_PBE Cr 06Sep2000                  
 POTCAR:    PAW_PBE F 08Apr2002                   
 POTCAR:    PAW_PBE Cr 06Sep2000                  
   VRHFIN =Cr : d5 s1                                                                               
   LEXCH  = PE                                                                                      
   EATOM  =   276.8859 eV,   20.3505 Ry                                                             
                                                                                                    
   TITEL  = PAW_PBE Cr 06Sep2000                                                                    
   LULTRA =        F    use ultrasoft PP ?                                                          
   IUNSCR =        1    unscreen: 0-lin 1-nonlin 2-no                                               
   RPACOR =    2.080    partial core radius                                                         
   POMASS =   51.996; ZVAL   =    6.000    mass and valenz                                          
   RCORE  =    2.500    outmost cutoff radius                                                       
   RWIGS  =    2.500; RWIGS  =    1.323    wigner-seitz radius (au A)                               
   ENMAX  =  227.080; ENMIN  =  170.310 eV                                                          
   RCLOC  =    1.721    cutoff for local pot                                                        
   LCOR   =        T    correct aug charges                                                         
   LPAW   =        T    paw PP                                                                      
   EAUG   =  402.108                                                                                
   DEXC   =    0.000                                                                                
   RMAX   =    2.552    core radius for proj-oper                                                   
   RAUG   =    1.300    factor for augmentation sphere                                              
   RDEP   =    2.609    radius for radial grids                                                     
   RDEPT  =    2.065    core radius for aug-charge                                                  
                                                                                                    
   Atomic configuration                                                                             
    9 entries                                                                                       
     n  l   j            E        occ.                                                              
     1  0  0.50     -5880.4963   2.0000                                                             
     2  0  0.50      -667.0865   2.0000                                                             
     2  1  1.50      -560.6250   6.0000                                                             
     3  0  0.50       -73.9860   2.0000                                                             
     3  1  1.50       -45.4378   6.0000                                                             
     3  2  2.50        -2.9137   5.0000                                                             
     4  0  0.50        -4.0071   1.0000                                                             
     4  1  0.50        -1.2789   0.0000                                                             
     4  3  2.50        -1.3606   0.0000                                                             
   Description                                                                                      
     l       E           TYP  RCUT    TYP  RCUT                                                     
     2     -2.9136677     23  2.500                                                                 
     2     -4.2742503     23  2.500                                                                 
     0     -4.0071322     23  2.500                                                                 
     0      9.4498801     23  2.500                                                                 
     1     -5.4423304     23  2.500                                                                 
     1     27.2116520     23  2.500                                                                 
  local pseudopotential read in
  partial core-charges read in
  partial kinetic energy density read in
  atomic valenz-charges read in
  non local Contribution for L=           2  read in
    real space projection operators read in
  non local Contribution for L=           2  read in
    real space projection operators read in
  non local Contribution for L=           0  read in
    real space projection operators read in
  non local Contribution for L=           0  read in
    real space projection operators read in
  non local Contribution for L=           1  read in
    real space projection operators read in
  non local Contribution for L=           1  read in
    real space projection operators read in
    PAW grid and wavefunctions read in
 
   number of l-projection  operators is LMAX  =           6
   number of lm-projection operators is LMMAX =          18
 
 POTCAR:    PAW_PBE F 08Apr2002                   
   VRHFIN =F: s2p5                                                                                  
   LEXCH  = PE                                                                                      
   EATOM  =   659.6475 eV,   48.4827 Ry                                                             
                                                                                                    
   TITEL  = PAW_PBE F 08Apr2002                                                                     
   LULTRA =        F    use ultrasoft PP ?                                                          
   IUNSCR =        1    unscreen: 0-lin 1-nonlin 2-no                                               
   RPACOR =    1.200    partial core radius                                                         
   POMASS =   18.998; ZVAL   =    7.000    mass and valenz                                          
   RCORE  =    1.520    outmost cutoff radius                                                       
   RWIGS  =    1.500; RWIGS  =    0.794    wigner-seitz radius (au A)                               
   ENMAX  =  400.000; ENMIN  =  300.000 eV                                                          
   ICORE  =        2    local potential                                                             
   LCOR   =        T    correct aug charges                                                         
   LPAW   =        T    paw PP                                                                      
   EAUG   =  613.614                                                                                
   RMAX   =    1.555    core radius for proj-oper                                                   
   RAUG   =    1.300    factor for augmentation sphere                                              
   RDEP   =    1.539    radius for radial grids                                                     
   RDEPT  =    1.299    core radius for aug-charge                                                  
                                                                                                    
   Atomic configuration                                                                             
    4 entries                                                                                       
     n  l   j            E        occ.                                                              
     1  0  0.50      -663.3661   2.0000                                                             
     2  0  0.50       -29.8995   2.0000                                                             
     2  1  0.50       -11.1114   5.0000                                                             
     3  2  1.50       -10.8847   0.0000                                                             
   Description                                                                                      
     l       E           TYP  RCUT    TYP  RCUT                                                     
     0    -29.8995018     23  1.200                                                                 
     0     -9.5240782     23  1.200                                                                 
     1    -11.1113914     23  1.520                                                                 
     1      1.3605826     23  1.520                                                                 
     2    -10.8846608      7  1.500                                                                 
  local pseudopotential read in
  partial core-charges read in
  partial kinetic energy density read in
  atomic valenz-charges read in
  non local Contribution for L=           0  read in
    real space projection operators read in
  non local Contribution for L=           0  read in
    real space projection operators read in
  non local Contribution for L=           1  read in
    real space projection operators read in
  non local Contribution for L=           1  read in
    real space projection operators read in
    PAW grid and wavefunctions read in
 
   number of l-projection  operators is LMAX  =           4
   number of lm-projection operators is LMMAX =           8
 
 Optimization of the real space projectors (new method)

 maximal supplied QI-value         = 15.12
 optimisation between [QCUT,QGAM] = [ 12.55, 25.10] = [ 44.09,176.36] Ry 
 Optimized for a Real-space Cutoff    1.47 Angstroem

   l    n(q)    QCUT    max X(q) W(low)/X(q) W(high)/X(q)  e(spline) 
   2     10    12.548    94.395    0.25E-03    0.13E-03    0.45E-06
   2     10    12.548    88.078    0.25E-03    0.13E-03    0.45E-06
   0     11    12.548    50.173    0.67E-04    0.23E-04    0.97E-06
   0     11    12.548    24.906    0.59E-04    0.20E-04    0.85E-06
   1     11    12.548    12.133    0.11E-03    0.12E-03    0.34E-06
   1     11    12.548     7.290    0.75E-04    0.88E-04    0.25E-06
 Optimization of the real space projectors (new method)

 maximal supplied QI-value         = 24.76
 optimisation between [QCUT,QGAM] = [ 12.38, 25.00] = [ 42.90,175.06] Ry 
 Optimized for a Real-space Cutoff    1.16 Angstroem

   l    n(q)    QCUT    max X(q) W(low)/X(q) W(high)/X(q)  e(spline) 
   0      9    12.378    14.049    0.11E-03    0.38E-05    0.23E-06
   0      9    12.378     8.945    0.15E-03    0.56E-05    0.30E-06
   1      8    12.378     7.086    0.18E-03    0.14E-03    0.29E-06
   1      8    12.378     6.747    0.16E-03    0.13E-03    0.26E-06
 -----------------------------------------------------------------------------
|                                                                             |
|               ----> ADVICE to this user running VASP <----                  |
|                                                                             |
|     You enforced a specific xc type in the INCAR file but a different       |
|     type was found in the POTCAR file.                                      |
|     I HOPE YOU KNOW WHAT YOU ARE DOING!                                     |
|                                                                             |
 -----------------------------------------------------------------------------

  PAW_PBE Cr 06Sep2000                  :
 energy of atom  1       EATOM= -276.8859
 kinetic energy error for atom=    0.0004 (will be added to EATOM!!)
  PAW_PBE F 08Apr2002                   :
 energy of atom  2       EATOM= -659.6475
 kinetic energy error for atom=    0.0256 (will be added to EATOM!!)
 
 
 POSCAR: DOS
  positions in direct lattice
  velocities in cartesian coordinates
 exchange correlation table for  LEXCH =       99
   RHO(1)=    0.500       N(1)  =     2000
   RHO(2)=  100.500       N(2)  =     4000
 


--------------------------------------------------------------------------------------------------------


 ion  position               nearest neighbor table
   1  0.500  0.000  1.000-  14 1.96   5 1.96  11 1.99   8 1.99
   2  0.000  0.500  0.000-  14 1.93   5 1.93   7 1.96  12 1.96  13 1.97   6 1.97
   3  0.500  1.000  0.500-   9 1.93  10 1.93   7 1.96  12 1.96  11 1.97   8 1.97
   4  1.000  0.500  0.500-  10 1.96   9 1.96   6 1.99  13 1.99
   5  0.818  0.815  0.040-   2 1.93   1 1.96
   6  0.866  0.415  0.184-   2 1.97   4 1.99
   7  0.314  0.686  0.250-   2 1.96   3 1.96
   8  0.585  0.134  0.316-   3 1.97   1 1.99
   9  0.185  0.182  0.461-   3 1.93   4 1.96
  10  0.815  0.818  0.539-   3 1.93   4 1.96
  11  0.415  0.866  0.684-   3 1.97   1 1.99
  12  0.686  0.314  0.750-   2 1.96   3 1.96
  13  0.134  0.585  0.816-   2 1.97   4 1.99
  14  0.182  0.185  0.960-   2 1.93   1 1.96
 

IMPORTANT INFORMATION: All symmetrisations will be switched off!
NOSYMM: (Re-)initialisation of all symmetry stuff for point group C_1.


----------------------------------------------------------------------------------------

                                     Primitive cell                                     

  volume of cell :     191.4417

  direct lattice vectors                    reciprocal lattice vectors
     5.556037718  0.290534409  0.132275360     0.178420420 -0.006075064  0.079035350
     0.129837541  5.561800485  0.134403458    -0.011198775  0.178147880  0.079098089
    -2.787488731 -2.871207633  6.071993649    -0.003638915 -0.003810958  0.161217974

  length of vectors
     5.565200997  5.564939058  7.272072165     0.195236624  0.195239820  0.161304061

  position of ions in fractional coordinates (direct lattice)
     0.499976487  0.000020313  0.999996114
     0.000020417  0.499985256  0.000002261
     0.499988192  0.999983892  0.499996081
     0.999983221  0.500026137  0.499999946
     0.818269860  0.814670232  0.039682409
     0.866326920  0.414585299  0.183778897
     0.314013801  0.685963033  0.250003849
     0.585006025  0.133935792  0.316187499
     0.185248942  0.181697363  0.460752333
     0.814762722  0.818285048  0.539259791
     0.415005236  0.866071190  0.683812640
     0.685990206  0.314044415  0.749993761
     0.133675929  0.585413510  0.816220140
     0.181751579  0.185318504  0.960314660

  ion indices of the primitive-cell ions
   primitive index   ion index
                 1           1
                 2           2
                 3           3
                 4           4
                 5           5
                 6           6
                 7           7
                 8           8
                 9           9
                10          10
                11          11
                12          12
                13          13
                14          14

----------------------------------------------------------------------------------------

 
 
 KPOINTS: K-Points                                

Automatic generation of k-mesh.
 Grid dimensions read from file:
 generate k-points for:    4    4    4

 Generating k-lattice:

  Cartesian coordinates                     Fractional coordinates (reciprocal lattice)
     0.044605105 -0.001518766  0.019758837     0.250000000 -0.000000000 -0.000000000
    -0.002799694  0.044536970  0.019774522     0.000000000  0.250000000  0.000000000
    -0.000909729 -0.000952739  0.040304493    -0.000000000  0.000000000  0.250000000

  Length of vectors
     0.048809156  0.048809955  0.040326015

  Shift w.r.t. Gamma in fractional coordinates (k-lattice)
     0.000000000  0.000000000  0.000000000

 
 Subroutine IBZKPT returns following result:
 ===========================================
 
 Found     64 irreducible k-points:
 
 Following reciprocal coordinates:
            Coordinates               Weight
  0.000000  0.000000  0.000000      1.000000
  0.250000  0.000000 -0.000000      1.000000
  0.500000  0.000000 -0.000000      1.000000
 -0.250000 -0.000000  0.000000      1.000000
 -0.000000  0.250000  0.000000      1.000000
  0.250000  0.250000  0.000000      1.000000
  0.500000  0.250000 -0.000000      1.000000
 -0.250000  0.250000 -0.000000      1.000000
 -0.000000  0.500000 -0.000000      1.000000
  0.250000  0.500000 -0.000000      1.000000
  0.500000  0.500000  0.000000      1.000000
 -0.250000  0.500000  0.000000      1.000000
  0.000000 -0.250000 -0.000000      1.000000
  0.250000 -0.250000  0.000000      1.000000
  0.500000 -0.250000 -0.000000      1.000000
 -0.250000 -0.250000 -0.000000      1.000000
 -0.000000  0.000000  0.250000      1.000000
  0.250000  0.000000  0.250000      1.000000
  0.500000  0.000000  0.250000      1.000000
 -0.250000 -0.000000  0.250000      1.000000
 -0.000000  0.250000  0.250000      1.000000
  0.250000  0.250000  0.250000      1.000000
  0.500000  0.250000  0.250000      1.000000
 -0.250000  0.250000  0.250000      1.000000
 -0.000000  0.500000  0.250000      1.000000
  0.250000  0.500000  0.250000      1.000000
  0.500000  0.500000  0.250000      1.000000
 -0.250000  0.500000  0.250000      1.000000
  0.000000 -0.250000  0.250000      1.000000
  0.250000 -0.250000  0.250000      1.000000
  0.500000 -0.250000  0.250000      1.000000
 -0.250000 -0.250000  0.250000      1.000000
 -0.000000  0.000000  0.500000      1.000000
  0.250000  0.000000  0.500000      1.000000
  0.500000  0.000000  0.500000      1.000000
 -0.250000  0.000000  0.500000      1.000000
 -0.000000  0.250000  0.500000      1.000000
  0.250000  0.250000  0.500000      1.000000
  0.500000  0.250000  0.500000      1.000000
 -0.250000  0.250000  0.500000      1.000000
 -0.000000  0.500000  0.500000      1.000000
  0.250000  0.500000  0.500000      1.000000
  0.500000  0.500000  0.500000      1.000000
 -0.250000  0.500000  0.500000      1.000000
  0.000000 -0.250000  0.500000      1.000000
  0.250000 -0.250000  0.500000      1.000000
  0.500000 -0.250000  0.500000      1.000000
 -0.250000 -0.250000  0.500000      1.000000
  0.000000 -0.000000 -0.250000      1.000000
  0.250000  0.000000 -0.250000      1.000000
  0.500000 -0.000000 -0.250000      1.000000
 -0.250000 -0.000000 -0.250000      1.000000
 -0.000000  0.250000 -0.250000      1.000000
  0.250000  0.250000 -0.250000      1.000000
  0.500000  0.250000 -0.250000      1.000000
 -0.250000  0.250000 -0.250000      1.000000
 -0.000000  0.500000 -0.250000      1.000000
  0.250000  0.500000 -0.250000      1.000000
  0.500000  0.500000 -0.250000      1.000000
 -0.250000  0.500000 -0.250000      1.000000
  0.000000 -0.250000 -0.250000      1.000000
  0.250000 -0.250000 -0.250000      1.000000
  0.500000 -0.250000 -0.250000      1.000000
 -0.250000 -0.250000 -0.250000      1.000000
 
 Following cartesian coordinates:
            Coordinates               Weight
  0.000000  0.000000  0.000000      1.000000
  0.044605 -0.001519  0.019759      1.000000
  0.089210 -0.003038  0.039518      1.000000
 -0.044605  0.001519 -0.019759      1.000000
 -0.002800  0.044537  0.019775      1.000000
  0.041805  0.043018  0.039533      1.000000
  0.086411  0.041499  0.059292      1.000000
 -0.047405  0.046056  0.000016      1.000000
 -0.005599  0.089074  0.039549      1.000000
  0.039006  0.087555  0.059308      1.000000
  0.083611  0.086036  0.079067      1.000000
 -0.050204  0.090593  0.019790      1.000000
  0.002800 -0.044537 -0.019775      1.000000
  0.047405 -0.046056 -0.000016      1.000000
  0.092010 -0.047575  0.019743      1.000000
 -0.041805 -0.043018 -0.039533      1.000000
 -0.000910 -0.000953  0.040304      1.000000
  0.043695 -0.002472  0.060063      1.000000
  0.088300 -0.003990  0.079822      1.000000
 -0.045515  0.000566  0.020546      1.000000
 -0.003709  0.043584  0.060079      1.000000
  0.040896  0.042065  0.079838      1.000000
  0.085501  0.040547  0.099597      1.000000
 -0.048315  0.045103  0.040320      1.000000
 -0.006509  0.088121  0.079854      1.000000
  0.038096  0.086602  0.099612      1.000000
  0.082701  0.085084  0.119371      1.000000
 -0.051114  0.089640  0.060095      1.000000
  0.001890 -0.045490  0.020530      1.000000
  0.046495 -0.047008  0.040289      1.000000
  0.091100 -0.048527  0.060048      1.000000
 -0.042715 -0.043971  0.000771      1.000000
 -0.001819 -0.001905  0.080609      1.000000
  0.042786 -0.003424  0.100368      1.000000
  0.087391 -0.004943  0.120127      1.000000
 -0.046425 -0.000387  0.060850      1.000000
 -0.004619  0.042631  0.100384      1.000000
  0.039986  0.041113  0.120142      1.000000
  0.084591  0.039594  0.139901      1.000000
 -0.049224  0.044150  0.080625      1.000000
 -0.007419  0.087168  0.120158      1.000000
  0.037186  0.085650  0.139917      1.000000
  0.081791  0.084131  0.159676      1.000000
 -0.052024  0.088687  0.100399      1.000000
  0.000980 -0.046442  0.060834      1.000000
  0.045585 -0.047961  0.080593      1.000000
  0.090190 -0.049480  0.100352      1.000000
 -0.043625 -0.044924  0.041076      1.000000
  0.000910  0.000953 -0.040304      1.000000
  0.045515 -0.000566 -0.020546      1.000000
  0.090120 -0.002085 -0.000787      1.000000
 -0.043695  0.002472 -0.060063      1.000000
 -0.001890  0.045490 -0.020530      1.000000
  0.042715  0.043971 -0.000771      1.000000
  0.087320  0.042452  0.018988      1.000000
 -0.046495  0.047008 -0.040289      1.000000
 -0.004690  0.090027 -0.000755      1.000000
  0.039915  0.088508  0.019003      1.000000
  0.084521  0.086989  0.038762      1.000000
 -0.049295  0.091545 -0.020514      1.000000
  0.003709 -0.043584 -0.060079      1.000000
  0.048315 -0.045103 -0.040320      1.000000
  0.092920 -0.046622 -0.020561      1.000000
 -0.040896 -0.042065 -0.079838      1.000000
 


--------------------------------------------------------------------------------------------------------




 Dimension of arrays:
   k-points           NKPTS =     64   k-points in BZ     NKDIM =     64   number of bands    NBANDS=     64
   number of dos      NEDOS =   3000   number of ions     NIONS =     14
   non local maximal  LDIM  =      6   non local SUM 2l+1 LMDIM =     18
   total plane-waves  NPLWV = 138240
   max r-space proj   IRMAX =   9672   max aug-charges    IRDMAX=  37085
   dimension x,y,z NGX =    48 NGY =   48 NGZ =   60
   dimension x,y,z NGXF=    96 NGYF=   96 NGZF=  120
   support grid    NGXF=    96 NGYF=   96 NGZF=  120
   ions per type =               4  10
   NGX,Y,Z   is equivalent  to a cutoff of  14.34, 14.34, 13.72 a.u.
   NGXF,Y,Z  is equivalent  to a cutoff of  28.68, 28.68, 27.43 a.u.

 SYSTEM =  DOS                                     
 POSCAR =  DOS                                     

 Startparameter for this run:
   NWRITE =      2    write-flag & timer
   PREC   = accura    normal or accurate (medium, high low for compatibility)
   ISTART =      1    job   : 0-new  1-cont  2-samecut
   ICHARG =     11    charge: 1-file 2-atom 10-const
   ISPIN  =      2    spin polarized calculation?
   LNONCOLLINEAR =      F non collinear calculations
   LSORBIT =      F    spin-orbit coupling
   INIWAV =      1    electr: 0-lowe 1-rand  2-diag
   LASPH  =      T    aspherical Exc in radial PAW
 Electronic Relaxation 1
   ENCUT  =  600.0 eV  44.10 Ry    6.64 a.u.  11.12 11.11 14.52*2*pi/ulx,y,z
   ENINI  =  600.0     initial cutoff
   ENAUG  =  613.6 eV  augmentation charge cutoff
   NELM   =    200;   NELMIN=  2; NELMDL=  0     # of ELM steps 
   EDIFF  = 0.1E-05   stopping-criterion for ELM
   LREAL  =      T    real-space projection
   NLSPLINE    = F    spline interpolate recip. space projectors
   LCOMPAT=      F    compatible to vasp.4.4
   GGA_COMPAT  = T    GGA compatible to vasp.4.4-vasp.4.6
   LMAXPAW     = -100 max onsite density
   LMAXMIX     =    2 max onsite mixed and CHGCAR
   VOSKOWN=      0    Vosko Wilk Nusair interpolation
   ROPT   =   -0.00025  -0.00025
 Ionic relaxation
   EDIFFG = -.5E-01   stopping-criterion for IOM
   NSW    =      0    number of steps for IOM
   NBLOCK =      1;   KBLOCK =      1    inner block; outer block 
   IBRION =     -1    ionic relax: 0-MD 1-quasi-New 2-CG
   NFREE  =      1    steps in history (QN), initial steepest desc. (CG)
   ISIF   =      0    stress and relaxation
   IWAVPR =     10    prediction:  0-non 1-charg 2-wave 3-comb
   ISYM   =     -1    0-nonsym 1-usesym 2-fastsym
   LCORR  =      T    Harris-Foulkes like correction to forces

   POTIM  = 0.5000    time-step for ionic-motion
   TEIN   =    0.0    initial temperature
   TEBEG  =    0.0;   TEEND  =   0.0 temperature during run
   SMASS  =  -3.00    Nose mass-parameter (am)
   estimated Nose-frequenzy (Omega)   =  0.10E-29 period in steps = 0.13E+47 mass=  -0.708E-27a.u.
   SCALEE = 1.0000    scale energy and forces
   NPACO  =    256;   APACO  = 10.0  distance and # of slots for P.C.
   PSTRESS=    0.0 pullay stress

  Mass of Ions in am
   POMASS =  52.00 19.00
  Ionic Valenz
   ZVAL   =   6.00  7.00
  Atomic Wigner-Seitz radii
   RWIGS  =  -1.00 -1.00
  virtual crystal weights 
   VCA    =   1.00  1.00
   NELECT =      94.0000    total number of electrons
   NUPDOWN=      -1.0000    fix difference up-down

 DOS related values:
   EMIN   =  -9.00;   EMAX   =  9.00  energy-range for DOS
   EFERMI =   0.00;   METHOD = LEGACY      
   ISMEAR =    -1;   SIGMA  =   0.03  broadening in eV -4-tet -1-fermi 0-gaus

 Electronic relaxation 2 (details)
   IALGO  =     58    algorithm
   LDIAG  =      T    sub-space diagonalisation (order eigenvalues)
   LSUBROT=      F    optimize rotation matrix (better conditioning)
   TURBO    =      0    0=normal 1=particle mesh
   IRESTART =      0    0=no restart 2=restart with 2 vectors
   NREBOOT  =      0    no. of reboots
   NMIN     =      0    reboot dimension
   EREF     =   0.00    reference energy to select bands
   IMIX   =      4    mixing-type and parameters
     AMIX     =   0.40;   BMIX     =  1.00
     AMIX_MAG =   1.60;   BMIX_MAG =  1.00
     AMIN     =   0.10
     WC   =   100.;   INIMIX=   1;  MIXPRE=   1;  MAXMIX= -45

 Intra band minimization:
   WEIMIN = 0.0000     energy-eigenvalue tresh-hold
   EBREAK =  0.39E-08  absolut break condition
   DEPER  =   0.30     relativ break condition  

   TIME   =   0.40     timestep for ELM

  volume/ion in A,a.u.               =      13.67        92.28
  Fermi-wavevector in a.u.,A,eV,Ry     =   1.291532  2.440642 22.695271  1.668055
  Thomas-Fermi vector in A             =   2.423296
 
 Write flags
   LWAVE        =      T    write WAVECAR
   LDOWNSAMPLE  =      F    k-point downsampling of WAVECAR
   LCHARG       =      T    write CHGCAR
   LVTOT        =      F    write LOCPOT, total local potential
   LVHAR        =      F    write LOCPOT, Hartree potential only
   LELF         =      F    write electronic localiz. function (ELF)
   LORBIT       =     10    0 simple, 1 ext, 2 COOP (PROOUT), +10 PAW based schemes


 Dipole corrections
   LMONO  =      F    monopole corrections only (constant potential shift)
   LDIPOL =      F    correct potential (dipole corrections)
   IDIPOL =      0    1-x, 2-y, 3-z, 4-all directions 
   EPSILON=  1.0000000 bulk dielectric constant

 Exchange correlation treatment:
   GGA     =    LI    GGA type
   LEXCH   =    99    internal setting for exchange type
   LIBXC   =     T    Libxc version 6.2.2      
   VOSKOWN =     0    Vosko Wilk Nusair interpolation
   LHFCALC =     F    Hartree Fock is set to
   LHFONE  =     F    Hartree Fock one center treatment
   AEXX    =    0.0000 exact exchange contribution

 Parameters of Libxc functionals:
   LIBXC1(gga_x_ncapr=324):
     P1: alpha =  0.343151E+00
     P2: beta =  0.179829E-01
     P3: mu =  0.219515E+00
     P4: zeta =  0.500000E+00
   LIBXC2(gga_c_p86=132):
     P1: alpha in eq 6 =  0.232660E-01
     P2: beta in eq 6 =  0.738900E-05
     P3: gamma in eq 6 =  0.872300E+01
     P4: delta in eq 6 =  0.472000E+00
     P5: linear parameter in eq 6 =  0.166700E-02
     P6: constant in the numerator in eq 6 =  0.256800E-02
     P7: constant in eq 9 =  0.191950E+00
 
 Linear response parameters
   LEPSILON=     F    determine dielectric tensor
   LRPA    =     F    only Hartree local field effects (RPA)
   LNABLA  =     F    use nabla operator in PAW spheres
   LVEL    =     F    velocity operator in full k-point grid
   CSHIFT  =0.1000    complex shift for real part using Kramers Kronig
   OMEGAMAX=  -1.0    maximum frequency
   DEG_THRESHOLD= 0.2000000E-02 threshold for treating states as degnerate
   RTIME   =   -0.100 relaxation time in fs
  (WPLASMAI=    0.000 imaginary part of plasma frequency in eV, 0.658/RTIME)
   DFIELD  = 0.0000000 0.0000000 0.0000000 field for delta impulse in time
 
  Optional k-point grid parameters
   LKPOINTS_OPT  =     F    use optional k-point grid
   KPOINTS_OPT_MODE=     1    mode for optional k-point grid
 
 Orbital magnetization related:
   ORBITALMAG=     F  switch on orbital magnetization
   LCHIMAG   =     F  perturbation theory with respect to B field
   DQ        =  0.001000  dq finite difference perturbation B field
   LLRAUG    =     F  two centre corrections for induced B field
   LBONE     =     F  B-component reconstruction in AE one-centre
   LVGVCALC  =     T  calculate vGv susceptibility
   LVGVAPPL  =     F  apply vGv susceptibility instead of pGv for G=0

 Random number generation:
   RANDOM_GENERATOR = DEFAULT
   PCG_SEED         = not used


--------------------------------------------------------------------------------------------------------


 Static calculation
 charge density and potential remain constant during run
 spin polarized calculation
 Conjugate gradient for all bands (Freysoldt, et al. PRB 79, 241103 (2009))
 preconditioned conjugated gradient   charged. constant during bandupdate  
 perform sub-space diagonalisation
    before iterative eigenvector-optimisation
 no mixing
 using additional bands           17
 real space projection scheme for non local part
 use partial core corrections
 calculate Harris-corrections to forces 
   (improved forces if not selfconsistent)
 use gradient corrections 
 WARNING: stress and forces are not correct
  (second derivative of E(xc) not defined)
 use of overlap-Matrix (Vanderbilt PP)
 Fermi-smearing in eV        SIGMA  =   0.03


--------------------------------------------------------------------------------------------------------


  energy-cutoff  :      600.00
  volume of cell :      191.44
      direct lattice vectors                 reciprocal lattice vectors
     5.556037718  0.290534409  0.132275360     0.178420420 -0.006075064  0.079035350
     0.129837541  5.561800485  0.134403458    -0.011198775  0.178147880  0.079098089
    -2.787488731 -2.871207633  6.071993649    -0.003638915 -0.003810958  0.161217974

  length of vectors
     5.565200997  5.564939058  7.272072165     0.195236624  0.195239820  0.161304061


 
 old parameters found on file WAVECAR:
  energy-cutoff  :      600.00
  volume of cell :      191.44
      direct lattice vectors                 reciprocal lattice vectors
     5.556037718  0.290534409  0.132275360     0.178420420 -0.006075064  0.079035350
     0.129837541  5.561800485  0.134403458    -0.011198775  0.178147880  0.079098089
    -2.787488731 -2.871207633  6.071993649    -0.003638915 -0.003810958  0.161217974

  length of vectors

 
 k-points in units of 2pi/SCALE and weight: K-Points                                
   0.00000000  0.00000000  0.00000000       0.016
   0.04460511 -0.00151877  0.01975884       0.016
   0.08921021 -0.00303753  0.03951767       0.016
  -0.04460511  0.00151877 -0.01975884       0.016
  -0.00279969  0.04453697  0.01977452       0.016
   0.04180541  0.04301820  0.03953336       0.016
   0.08641052  0.04149944  0.05929220       0.016
  -0.04740480  0.04605574  0.00001568       0.016
  -0.00559939  0.08907394  0.03954904       0.016
   0.03900572  0.08755517  0.05930788       0.016
   0.08361082  0.08603641  0.07906672       0.016
  -0.05020449  0.09059271  0.01979021       0.016
   0.00279969 -0.04453697 -0.01977452       0.016
   0.04740480 -0.04605574 -0.00001568       0.016
   0.09200990 -0.04757450  0.01974315       0.016
  -0.04180541 -0.04301820 -0.03953336       0.016
  -0.00090973 -0.00095274  0.04030449       0.016
   0.04369538 -0.00247151  0.06006333       0.016
   0.08830048 -0.00399027  0.07982217       0.016
  -0.04551483  0.00056603  0.02054566       0.016
  -0.00370942  0.04358423  0.06007902       0.016
   0.04089568  0.04206546  0.07983785       0.016
   0.08550079  0.04054670  0.09959669       0.016
  -0.04831453  0.04510300  0.04032018       0.016
  -0.00650912  0.08812120  0.07985354       0.016
   0.03809599  0.08660243  0.09961238       0.016
   0.08270109  0.08508367  0.11937121       0.016
  -0.05111422  0.08963997  0.06009470       0.016
   0.00188996 -0.04548971  0.02052997       0.016
   0.04649507 -0.04700848  0.04028881       0.016
   0.09110018 -0.04852724  0.06004765       0.016
  -0.04271514 -0.04397094  0.00077113       0.016
  -0.00181946 -0.00190548  0.08060899       0.016
   0.04278565 -0.00342424  0.10036782       0.016
   0.08739075 -0.00494301  0.12012666       0.016
  -0.04642456 -0.00038671  0.06085015       0.016
  -0.00461915  0.04263149  0.10038351       0.016
   0.03998595  0.04111273  0.12014235       0.016
   0.08459106  0.03959396  0.13990118       0.016
  -0.04922426  0.04415026  0.08062467       0.016
  -0.00741885  0.08716846  0.12015803       0.016
   0.03718626  0.08564970  0.13991687       0.016
   0.08179136  0.08413093  0.15967571       0.016
  -0.05202395  0.08868723  0.10039919       0.016
   0.00098024 -0.04644245  0.06083446       0.016
   0.04558534 -0.04796121  0.08059330       0.016
   0.09019045 -0.04947998  0.10035214       0.016
  -0.04362487 -0.04492368  0.04107563       0.016
   0.00090973  0.00095274 -0.04030449       0.016
   0.04551483 -0.00056603 -0.02054566       0.016
   0.09011994 -0.00208479 -0.00078682       0.016
  -0.04369538  0.00247151 -0.06006333       0.016
  -0.00188996  0.04548971 -0.02052997       0.016
   0.04271514  0.04397094 -0.00077113       0.016
   0.08732025  0.04245218  0.01898770       0.016
  -0.04649507  0.04700848 -0.04028881       0.016
  -0.00468966  0.09002668 -0.00075545       0.016
   0.03991545  0.08850791  0.01900339       0.016
   0.08452055  0.08698915  0.03876223       0.016
  -0.04929476  0.09154545 -0.02051429       0.016
   0.00370942 -0.04358423 -0.06007902       0.016
   0.04831453 -0.04510300 -0.04032018       0.016
   0.09291963 -0.04662176 -0.02056134       0.016
  -0.04089568 -0.04206546 -0.07983785       0.016
 
 k-points in reciprocal lattice and weights: K-Points                                
   0.00000000  0.00000000  0.00000000       0.016
   0.25000000  0.00000000 -0.00000000       0.016
   0.50000000  0.00000000 -0.00000000       0.016
  -0.25000000 -0.00000000  0.00000000       0.016
  -0.00000000  0.25000000  0.00000000       0.016
   0.25000000  0.25000000  0.00000000       0.016
   0.50000000  0.25000000 -0.00000000       0.016
  -0.25000000  0.25000000 -0.00000000       0.016
  -0.00000000  0.50000000 -0.00000000       0.016
   0.25000000  0.50000000 -0.00000000       0.016
   0.50000000  0.50000000  0.00000000       0.016
  -0.25000000  0.50000000  0.00000000       0.016
   0.00000000 -0.25000000 -0.00000000       0.016
   0.25000000 -0.25000000  0.00000000       0.016
   0.50000000 -0.25000000 -0.00000000       0.016
  -0.25000000 -0.25000000 -0.00000000       0.016
  -0.00000000  0.00000000  0.25000000       0.016
   0.25000000  0.00000000  0.25000000       0.016
   0.50000000  0.00000000  0.25000000       0.016
  -0.25000000 -0.00000000  0.25000000       0.016
  -0.00000000  0.25000000  0.25000000       0.016
   0.25000000  0.25000000  0.25000000       0.016
   0.50000000  0.25000000  0.25000000       0.016
  -0.25000000  0.25000000  0.25000000       0.016
  -0.00000000  0.50000000  0.25000000       0.016
   0.25000000  0.50000000  0.25000000       0.016
   0.50000000  0.50000000  0.25000000       0.016
  -0.25000000  0.50000000  0.25000000       0.016
   0.00000000 -0.25000000  0.25000000       0.016
   0.25000000 -0.25000000  0.25000000       0.016
   0.50000000 -0.25000000  0.25000000       0.016
  -0.25000000 -0.25000000  0.25000000       0.016
  -0.00000000  0.00000000  0.50000000       0.016
   0.25000000  0.00000000  0.50000000       0.016
   0.50000000  0.00000000  0.50000000       0.016
  -0.25000000  0.00000000  0.50000000       0.016
  -0.00000000  0.25000000  0.50000000       0.016
   0.25000000  0.25000000  0.50000000       0.016
   0.50000000  0.25000000  0.50000000       0.016
  -0.25000000  0.25000000  0.50000000       0.016
  -0.00000000  0.50000000  0.50000000       0.016
   0.25000000  0.50000000  0.50000000       0.016
   0.50000000  0.50000000  0.50000000       0.016
  -0.25000000  0.50000000  0.50000000       0.016
   0.00000000 -0.25000000  0.50000000       0.016
   0.25000000 -0.25000000  0.50000000       0.016
   0.50000000 -0.25000000  0.50000000       0.016
  -0.25000000 -0.25000000  0.50000000       0.016
   0.00000000 -0.00000000 -0.25000000       0.016
   0.25000000  0.00000000 -0.25000000       0.016
   0.50000000 -0.00000000 -0.25000000       0.016
  -0.25000000 -0.00000000 -0.25000000       0.016
  -0.00000000  0.25000000 -0.25000000       0.016
   0.25000000  0.25000000 -0.25000000       0.016
   0.50000000  0.25000000 -0.25000000       0.016
  -0.25000000  0.25000000 -0.25000000       0.016
  -0.00000000  0.50000000 -0.25000000       0.016
   0.25000000  0.50000000 -0.25000000       0.016
   0.50000000  0.50000000 -0.25000000       0.016
  -0.25000000  0.50000000 -0.25000000       0.016
   0.00000000 -0.25000000 -0.25000000       0.016
   0.25000000 -0.25000000 -0.25000000       0.016
   0.50000000 -0.25000000 -0.25000000       0.016
  -0.25000000 -0.25000000 -0.25000000       0.016
 
 position of ions in fractional coordinates (direct lattice) 
   0.49997649  0.00002031  0.99999611
   0.00002042  0.49998526  0.00000226
   0.49998819  0.99998389  0.49999608
   0.99998322  0.50002614  0.49999995
   0.81826986  0.81467023  0.03968241
   0.86632692  0.41458530  0.18377890
   0.31401380  0.68596303  0.25000385
   0.58500602  0.13393579  0.31618750
   0.18524894  0.18169736  0.46075233
   0.81476272  0.81828505  0.53925979
   0.41500524  0.86607119  0.68381264
   0.68599021  0.31404441  0.74999376
   0.13367593  0.58541351  0.81622014
   0.18175158  0.18531850  0.96031466
 
 position of ions in cartesian coordinates  (Angst):
  -0.00958704 -2.72582312  6.13810735
   0.06502399  2.78081768  0.06721618
   1.51405526  4.27138211  3.23651044
   4.22712244  1.63597149  3.23547488
   4.54149872  4.65483241  0.45868277
   4.35489217  2.02987113  1.28621970
   1.13685336  3.18860838  1.65175387
   2.38633634  0.00704857  2.01527180
  -0.23150069 -0.25852994  2.84660987
   3.12991594  3.23952795  3.49213540
   0.51211327  2.97412039  4.32340394
   1.76156306 -0.20743168  4.68690561
  -1.45648729  0.95125311  5.05244714
  -1.64298636 -1.67375315  5.87997322
 


--------------------------------------------------------------------------------------------------------


 k-point   1 :   0.0000 0.0000 0.0000  plane waves:    6379
 k-point   2 :   0.2500 0.0000-0.0000  plane waves:    6381
 k-point   3 :   0.5000 0.0000-0.0000  plane waves:    6402
 k-point   4 :  -0.2500-0.0000 0.0000  plane waves:    6381
 k-point   5 :  -0.0000 0.2500 0.0000  plane waves:    6381
 k-point   6 :   0.2500 0.2500 0.0000  plane waves:    6390
 k-point   7 :   0.5000 0.2500-0.0000  plane waves:    6402
 k-point   8 :  -0.2500 0.2500-0.0000  plane waves:    6395
 k-point   9 :  -0.0000 0.5000-0.0000  plane waves:    6402
 k-point  10 :   0.2500 0.5000-0.0000  plane waves:    6402
 k-point  11 :   0.5000 0.5000 0.0000  plane waves:    6380
 k-point  12 :  -0.2500 0.5000 0.0000  plane waves:    6402
 k-point  13 :   0.0000-0.2500-0.0000  plane waves:    6381
 k-point  14 :   0.2500-0.2500 0.0000  plane waves:    6395
 k-point  15 :   0.5000-0.2500-0.0000  plane waves:    6402
 k-point  16 :  -0.2500-0.2500-0.0000  plane waves:    6390
 k-point  17 :  -0.0000 0.0000 0.2500  plane waves:    6386
 k-point  18 :   0.2500 0.0000 0.2500  plane waves:    6391
 k-point  19 :   0.5000 0.0000 0.2500  plane waves:    6392
 k-point  20 :  -0.2500-0.0000 0.2500  plane waves:    6392
 k-point  21 :  -0.0000 0.2500 0.2500  plane waves:    6390
 k-point  22 :   0.2500 0.2500 0.2500  plane waves:    6374
 k-point  23 :   0.5000 0.2500 0.2500  plane waves:    6390
 k-point  24 :  -0.2500 0.2500 0.2500  plane waves:    6400
 k-point  25 :  -0.0000 0.5000 0.2500  plane waves:    6392
 k-point  26 :   0.2500 0.5000 0.2500  plane waves:    6390
 k-point  27 :   0.5000 0.5000 0.2500  plane waves:    6399
 k-point  28 :  -0.2500 0.5000 0.2500  plane waves:    6394
 k-point  29 :   0.0000-0.2500 0.2500  plane waves:    6392
 k-point  30 :   0.2500-0.2500 0.2500  plane waves:    6400
 k-point  31 :   0.5000-0.2500 0.2500  plane waves:    6394
 k-point  32 :  -0.2500-0.2500 0.2500  plane waves:    6380
 k-point  33 :  -0.0000 0.0000 0.5000  plane waves:    6370
 k-point  34 :   0.2500 0.0000 0.5000  plane waves:    6363
 k-point  35 :   0.5000 0.0000 0.5000  plane waves:    6394
 k-point  36 :  -0.2500 0.0000 0.5000  plane waves:    6363
 k-point  37 :  -0.0000 0.2500 0.5000  plane waves:    6363
 k-point  38 :   0.2500 0.2500 0.5000  plane waves:    6381
 k-point  39 :   0.5000 0.2500 0.5000  plane waves:    6395
 k-point  40 :  -0.2500 0.2500 0.5000  plane waves:    6400
 k-point  41 :  -0.0000 0.5000 0.5000  plane waves:    6394
 k-point  42 :   0.2500 0.5000 0.5000  plane waves:    6395
 k-point  43 :   0.5000 0.5000 0.5000  plane waves:    6390
 k-point  44 :  -0.2500 0.5000 0.5000  plane waves:    6395
 k-point  45 :   0.0000-0.2500 0.5000  plane waves:    6363
 k-point  46 :   0.2500-0.2500 0.5000  plane waves:    6400
 k-point  47 :   0.5000-0.2500 0.5000  plane waves:    6395
 k-point  48 :  -0.2500-0.2500 0.5000  plane waves:    6381
 k-point  49 :   0.0000-0.0000-0.2500  plane waves:    6386
 k-point  50 :   0.2500 0.0000-0.2500  plane waves:    6392
 k-point  51 :   0.5000-0.0000-0.2500  plane waves:    6392
 k-point  52 :  -0.2500-0.0000-0.2500  plane waves:    6391
 k-point  53 :  -0.0000 0.2500-0.2500  plane waves:    6392
 k-point  54 :   0.2500 0.2500-0.2500  plane waves:    6380
 k-point  55 :   0.5000 0.2500-0.2500  plane waves:    6394
 k-point  56 :  -0.2500 0.2500-0.2500  plane waves:    6400
 k-point  57 :  -0.0000 0.5000-0.2500  plane waves:    6392
 k-point  58 :   0.2500 0.5000-0.2500  plane waves:    6394
 k-point  59 :   0.5000 0.5000-0.2500  plane waves:    6399
 k-point  60 :  -0.2500 0.5000-0.2500  plane waves:    6390
 k-point  61 :   0.0000-0.2500-0.2500  plane waves:    6390
 k-point  62 :   0.2500-0.2500-0.2500  plane waves:    6400
 k-point  63 :   0.5000-0.2500-0.2500  plane waves:    6390
 k-point  64 :  -0.2500-0.2500-0.2500  plane waves:    6374

 maximum and minimum number of plane-waves per node :       421      378

 maximum number of plane-waves:      6402
 maximum index in each direction: 
   IXMAX=   11   IYMAX=   11   IZMAX=   14
   IXMIN=  -11   IYMIN=  -11   IZMIN=  -15


 real space projection operators:
  total allocation   :       8138.88 KBytes
  max/ min on nodes  :        524.84        498.98


 parallel 3D FFT for wavefunctions:
    minimum data exchange during FFTs selected (reduces bandwidth)
 parallel 3D FFT for charge:
    minimum data exchange during FFTs selected (reduces bandwidth)


 total amount of memory used by VASP MPI-rank0    79397. kBytes
=======================================================================

   base      :      30000. kBytes
   nonlr-proj:       2942. kBytes
   fftplans  :       1003. kBytes
   grid      :       2563. kBytes
   one-center:         31. kBytes
   wavefun   :      42858. kBytes
 
     INWAV:  cpu time      3.2641: real time      4.2945
 initial charge density was supplied:
 number of electron      94.0000007 magnetization      14.0000006
 keeping initial charge density in first step


--------------------------------------------------------------------------------------------------------


 Maximum index for non-local projection operator          684
 Maximum index for augmentation-charges         1261 (set IRDMAX)


--------------------------------------------------------------------------------------------------------


 First call to EWALD:  gamma=   0.308
 Maximum number of real-space cells 3x 3x 3
 Maximum number of reciprocal cells 3x 3x 3

    FEWALD:  cpu time      0.0023: real time      0.0048


--------------------------------------- Ionic step        1  -------------------------------------------




--------------------------------------- Iteration      1(   1)  ---------------------------------------


    POTLOK:  cpu time      0.0975: real time      0.1066
    SETDIJ:  cpu time      0.2717: real time      0.2736
    TRIAL :  cpu time      6.4471: real time      6.7262
    CORREC:  cpu time      3.5032: real time      3.8019
    --------------------------------------------
      LOOP:  cpu time     10.3393: real time     10.9305

 eigenvalue-minimisations  :     0
 total energy-change (2. order) :-0.8625563E+02  (-0.1724624E-01)
 number of electron      94.0000007 magnetization      14.0000006
 augmentation part       94.0000007 magnetization      14.0000006

 Free energy of the ion-electron system (eV)
  ---------------------------------------------------
  alpha Z        PSCENC =       258.48617143
  Ewald energy   TEWEN  =     -5009.94991771
  -Hartree energ DENC   =     -2668.42037006
  -exchange      EXHF   =         0.00000000
  -V(xc)+E(xc)   XCENC  =       304.00139078
  PAW double counting   =      7610.69684549    -7568.74993388
  entropy T*S    EENTRO =        -0.00080688
  eigenvalues    EBANDS =      -710.08469821
  atomic energy  EATOM  =      7697.76524756
  ---------------------------------------------------
  free energy    TOTEN  =       -86.25563223 eV

  energy without entropy =      -86.25482536  energy(sigma->0) =      -86.25522879


--------------------------------------------------------------------------------------------------------




--------------------------------------- Iteration      1(   2)  ---------------------------------------


    TRIAL :  cpu time      5.9675: real time      5.9694
    CORREC:  cpu time      2.5698: real time      2.5706
    --------------------------------------------
      LOOP:  cpu time      8.5394: real time      8.5452

 eigenvalue-minimisations  :     0
 total energy-change (2. order) :-0.1717285E-01  (-0.2196325E-01)
 number of electron      94.0000007 magnetization      14.0000006
 augmentation part       94.0000007 magnetization      14.0000006

 Free energy of the ion-electron system (eV)
  ---------------------------------------------------
  alpha Z        PSCENC =       258.48617143
  Ewald energy   TEWEN  =     -5009.94991771
  -Hartree energ DENC   =     -2668.42037006
  -exchange      EXHF   =         0.00000000
  -V(xc)+E(xc)   XCENC  =       304.00139078
  PAW double counting   =      7610.69684549    -7568.74993388
  entropy T*S    EENTRO =        -0.00571639
  eigenvalues    EBANDS =      -710.10143180
  atomic energy  EATOM  =      7697.76524756
  ---------------------------------------------------
  free energy    TOTEN  =       -86.27280508 eV

  energy without entropy =      -86.26708869  energy(sigma->0) =      -86.26994688


--------------------------------------------------------------------------------------------------------




--------------------------------------- Iteration      1(   3)  ---------------------------------------


    TRIAL :  cpu time      6.0119: real time      6.0164
    CORREC:  cpu time      2.5432: real time      2.5444
    --------------------------------------------
      LOOP:  cpu time      8.5561: real time      8.5655

 eigenvalue-minimisations  :     0
 total energy-change (2. order) :-0.1555809E-01  (-0.2598234E-02)
 number of electron      94.0000007 magnetization      14.0000006
 augmentation part       94.0000007 magnetization      14.0000006

 Free energy of the ion-electron system (eV)
  ---------------------------------------------------
  alpha Z        PSCENC =       258.48617143
  Ewald energy   TEWEN  =     -5009.94991771
  -Hartree energ DENC   =     -2668.42037006
  -exchange      EXHF   =         0.00000000
  -V(xc)+E(xc)   XCENC  =       304.00139078
  PAW double counting   =      7610.69684549    -7568.74993388
  entropy T*S    EENTRO =        -0.00540199
  eigenvalues    EBANDS =      -710.11208037
  atomic energy  EATOM  =      7697.76524756
  ---------------------------------------------------
  free energy    TOTEN  =       -86.28836317 eV

  energy without entropy =      -86.28296118  energy(sigma->0) =      -86.28566217


--------------------------------------------------------------------------------------------------------




--------------------------------------- Iteration      1(   4)  ---------------------------------------


    TRIAL :  cpu time      5.9425: real time      5.9459
    CORREC:  cpu time      2.5576: real time      2.5584
    --------------------------------------------
      LOOP:  cpu time      8.5048: real time      8.5092

 eigenvalue-minimisations  :     0
 total energy-change (2. order) :-0.2598475E-02  (-0.9191659E-03)
 number of electron      94.0000007 magnetization      14.0000006
 augmentation part       94.0000007 magnetization      14.0000006

 Free energy of the ion-electron system (eV)
  ---------------------------------------------------
  alpha Z        PSCENC =       258.48617143
  Ewald energy   TEWEN  =     -5009.94991771
  -Hartree energ DENC   =     -2668.42037006
  -exchange      EXHF   =         0.00000000
  -V(xc)+E(xc)   XCENC  =       304.00139078
  PAW double counting   =      7610.69684549    -7568.74993388
  entropy T*S    EENTRO =        -0.00492234
  eigenvalues    EBANDS =      -710.11499325
  atomic energy  EATOM  =      7697.76524756
  ---------------------------------------------------
  free energy    TOTEN  =       -86.29096164 eV

  energy without entropy =      -86.28603930  energy(sigma->0) =      -86.28850047


--------------------------------------------------------------------------------------------------------




--------------------------------------- Iteration      1(   5)  ---------------------------------------


    TRIAL :  cpu time      6.0048: real time      6.0087
    CORREC:  cpu time      2.5492: real time      2.5503
    --------------------------------------------
      LOOP:  cpu time      8.5549: real time      8.5638

 eigenvalue-minimisations  :     0
 total energy-change (2. order) :-0.9221166E-03  (-0.5226337E-03)
 number of electron      94.0000007 magnetization      14.0000006
 augmentation part       94.0000007 magnetization      14.0000006

 Free energy of the ion-electron system (eV)
  ---------------------------------------------------
  alpha Z        PSCENC =       258.48617143
  Ewald energy   TEWEN  =     -5009.94991771
  -Hartree energ DENC   =     -2668.42037006
  -exchange      EXHF   =         0.00000000
  -V(xc)+E(xc)   XCENC  =       304.00139078
  PAW double counting   =      7610.69684549    -7568.74993388
  entropy T*S    EENTRO =        -0.00447114
  eigenvalues    EBANDS =      -710.11639501
  atomic energy  EATOM  =      7697.76524756
  ---------------------------------------------------
  free energy    TOTEN  =       -86.29188376 eV

  energy without entropy =      -86.28741262  energy(sigma->0) =      -86.28964819


--------------------------------------------------------------------------------------------------------




--------------------------------------- Iteration      1(   6)  ---------------------------------------


    TRIAL :  cpu time      5.9405: real time      5.9445
    CORREC:  cpu time      2.5418: real time      2.5429
    --------------------------------------------
      LOOP:  cpu time      8.4833: real time      8.4924

 eigenvalue-minimisations  :     0
 total energy-change (2. order) :-0.5241126E-03  (-0.1048240E-03)
 number of electron      94.0000007 magnetization      14.0000006
 augmentation part       94.0000007 magnetization      14.0000006

 Free energy of the ion-electron system (eV)
  ---------------------------------------------------
  alpha Z        PSCENC =       258.48617143
  Ewald energy   TEWEN  =     -5009.94991771
  -Hartree energ DENC   =     -2668.42037006
  -exchange      EXHF   =         0.00000000
  -V(xc)+E(xc)   XCENC  =       304.00139078
  PAW double counting   =      7610.69684549    -7568.74993388
  entropy T*S    EENTRO =        -0.00432773
  eigenvalues    EBANDS =      -710.11737033
  atomic energy  EATOM  =      7697.76524756
  ---------------------------------------------------
  free energy    TOTEN  =       -86.29240787 eV

  energy without entropy =      -86.28808014  energy(sigma->0) =      -86.29024400


--------------------------------------------------------------------------------------------------------




--------------------------------------- Iteration      1(   7)  ---------------------------------------


    TRIAL :  cpu time      5.9296: real time      5.9322
    CORREC:  cpu time      2.5407: real time      2.5437
    --------------------------------------------
      LOOP:  cpu time      8.4712: real time      8.4810

 eigenvalue-minimisations  :     0
 total energy-change (2. order) :-0.1048735E-03  (-0.2784277E-04)
 number of electron      94.0000007 magnetization      14.0000006
 augmentation part       94.0000007 magnetization      14.0000006

 Free energy of the ion-electron system (eV)
  ---------------------------------------------------
  alpha Z        PSCENC =       258.48617143
  Ewald energy   TEWEN  =     -5009.94991771
  -Hartree energ DENC   =     -2668.42037006
  -exchange      EXHF   =         0.00000000
  -V(xc)+E(xc)   XCENC  =       304.00139078
  PAW double counting   =      7610.69684549    -7568.74993388
  entropy T*S    EENTRO =        -0.00427093
  eigenvalues    EBANDS =      -710.11761861
  atomic energy  EATOM  =      7697.76524756
  ---------------------------------------------------
  free energy    TOTEN  =       -86.29251274 eV

  energy without entropy =      -86.28824182  energy(sigma->0) =      -86.29037728


--------------------------------------------------------------------------------------------------------




--------------------------------------- Iteration      1(   8)  ---------------------------------------


    TRIAL :  cpu time      5.9376: real time      5.9416
    CORREC:  cpu time      2.5522: real time      2.5531
    --------------------------------------------
      LOOP:  cpu time      8.4907: real time      8.4996

 eigenvalue-minimisations  :     0
 total energy-change (2. order) :-0.2784640E-04  (-0.3449223E-05)
 number of electron      94.0000007 magnetization      14.0000006
 augmentation part       94.0000007 magnetization      14.0000006

 Free energy of the ion-electron system (eV)
  ---------------------------------------------------
  alpha Z        PSCENC =       258.48617143
  Ewald energy   TEWEN  =     -5009.94991771
  -Hartree energ DENC   =     -2668.42037006
  -exchange      EXHF   =         0.00000000
  -V(xc)+E(xc)   XCENC  =       304.00139078
  PAW double counting   =      7610.69684549    -7568.74993388
  entropy T*S    EENTRO =        -0.00426170
  eigenvalues    EBANDS =      -710.11770326
  atomic energy  EATOM  =      7697.76524756
  ---------------------------------------------------
  free energy    TOTEN  =       -86.29254059 eV

  energy without entropy =      -86.28827889  energy(sigma->0) =      -86.29040974


--------------------------------------------------------------------------------------------------------




--------------------------------------- Iteration      1(   9)  ---------------------------------------


    TRIAL :  cpu time      5.9499: real time      5.9540
    CORREC:  cpu time      2.5509: real time      2.5519
    --------------------------------------------
      LOOP:  cpu time      8.5017: real time      8.5125

 eigenvalue-minimisations  :     0
 total energy-change (2. order) :-0.3449262E-05  (-0.4836538E-06)
 number of electron      94.0000007 magnetization      14.0000006
 augmentation part       94.0000007 magnetization      14.0000006

 Free energy of the ion-electron system (eV)
  ---------------------------------------------------
  alpha Z        PSCENC =       258.48617143
  Ewald energy   TEWEN  =     -5009.94991771
  -Hartree energ DENC   =     -2668.42037006
  -exchange      EXHF   =         0.00000000
  -V(xc)+E(xc)   XCENC  =       304.00139078
  PAW double counting   =      7610.69684549    -7568.74993388
  entropy T*S    EENTRO =        -0.00426040
  eigenvalues    EBANDS =      -710.11771594
  atomic energy  EATOM  =      7697.76524756
  ---------------------------------------------------
  free energy    TOTEN  =       -86.29254404 eV

  energy without entropy =      -86.28828364  energy(sigma->0) =      -86.29041384


--------------------------------------------------------------------------------------------------------




--------------------------------------- Iteration      1(  10)  ---------------------------------------


    TRIAL :  cpu time      5.9348: real time      5.9387
    CORREC:  cpu time      2.5473: real time      2.5484
    EDDIAG:  cpu time      2.5552: real time      2.5810
    --------------------------------------------
      LOOP:  cpu time     11.0383: real time     11.0733

 eigenvalue-minimisations  :     0
 total energy-change (2. order) :-0.4834942E-06  (-0.7634054E-07)
 number of electron      94.0000007 magnetization      14.0000006
 augmentation part       94.0000007 magnetization      14.0000006

 Free energy of the ion-electron system (eV)
  ---------------------------------------------------
  alpha Z        PSCENC =       258.48617143
  Ewald energy   TEWEN  =     -5009.94991771
  -Hartree energ DENC   =     -2668.42037006
  -exchange      EXHF   =         0.00000000
  -V(xc)+E(xc)   XCENC  =       304.00139078
  PAW double counting   =      7610.69684549    -7568.74993388
  entropy T*S    EENTRO =        -0.00426057
  eigenvalues    EBANDS =      -710.11771772
  atomic energy  EATOM  =      7697.76524756
  ---------------------------------------------------
  free energy    TOTEN  =       -86.29254452 eV

  energy without entropy =      -86.28828396  energy(sigma->0) =      -86.29041424


--------------------------------------------------------------------------------------------------------


  average scaling for gradient   0.6948


 average (electrostatic) potential at core
  the test charge radii are     1.1394  0.7167
  (the norm of the test charge is              1.0000)
       1 -47.0326       2 -48.7087       3 -48.7090       4 -47.0322       5 -78.9573
       6 -79.2405       7 -79.3159       8 -79.2400       9 -78.9571      10 -78.9582
      11 -79.2408      12 -79.3148      13 -79.2404      14 -78.9598
 
 
 
 E-fermi :   1.2448     XC(G=0):  -9.1289     alpha+bet : -7.3287

 Fermi energy:         1.2448231349

 spin component 1

 k-point     1 :       0.0000    0.0000    0.0000
  band No.  band energies     occupation 
      1     -23.2419      1.00000
      2     -22.8455      1.00000
      3     -22.8215      1.00000
      4     -22.7716      1.00000
      5     -22.7169      1.00000
      6     -22.6496      1.00000
      7     -22.6260      1.00000
      8     -22.5579      1.00000
      9     -22.4264      1.00000
     10     -22.3883      1.00000
     11      -6.6283      1.00000
     12      -6.5046      1.00000
     13      -6.2443      1.00000
     14      -6.0136      1.00000
     15      -6.0091      1.00000
     16      -5.4198      1.00000
     17      -5.3331      1.00000
     18      -5.2717      1.00000
     19      -5.2107      1.00000
     20      -5.1674      1.00000
     21      -4.9284      1.00000
     22      -4.8479      1.00000
     23      -4.8396      1.00000
     24      -4.4940      1.00000
     25      -4.4133      1.00000
     26      -4.3486      1.00000
     27      -3.9791      1.00000
     28      -3.8853      1.00000
     29      -3.7786      1.00000
     30      -3.7644      1.00000
     31      -3.7209      1.00000
     32      -3.6887      1.00000
     33      -3.4861      1.00000
     34      -3.4489      1.00000
     35      -3.3046      1.00000
     36      -3.1909      1.00000
     37      -3.1579      1.00000
     38      -3.1117      1.00000
     39      -2.9270      1.00000
     40      -2.7286      1.00000
     41      -0.6356      1.00000
     42      -0.4514      1.00000
     43      -0.3379      1.00000
     44      -0.1671      1.00000
     45       0.0346      1.00000
     46       0.1185      1.00000
     47       0.4754      1.00000
     48       0.6490      1.00000
     49       0.6784      1.00000
     50       0.7608      1.00000
     51       0.9390      0.99999
     52       1.0186      0.99977
     53       1.0648      0.99873
     54       1.1500      0.97101
     55       1.4023      0.00292
     56       1.7467      0.00000
     57       2.0353      0.00000
     58       2.3676      0.00000
     59       3.4929      0.00000
     60       3.6493      0.00000
     61       4.6174      0.00000
     62       8.2622      0.00000
     63       8.5474      0.00000
     64       8.6030      0.00000

 k-point     2 :       0.2500    0.0000   -0.0000
  band No.  band energies     occupation 
      1     -23.1839      1.00000
      2     -22.9083      1.00000
      3     -22.8186      1.00000
      4     -22.7789      1.00000
      5     -22.7039      1.00000
      6     -22.6571      1.00000
      7     -22.5877      1.00000
      8     -22.5447      1.00000
      9     -22.4497      1.00000
     10     -22.4201      1.00000
     11      -6.4505      1.00000
     12      -6.3753      1.00000
     13      -6.1211      1.00000
     14      -5.9591      1.00000
     15      -5.9085      1.00000
     16      -5.4523      1.00000
     17      -5.4008      1.00000
     18      -5.2734      1.00000
     19      -5.2461      1.00000
     20      -5.2039      1.00000
     21      -5.1040      1.00000
     22      -4.8256      1.00000
     23      -4.7973      1.00000
     24      -4.6324      1.00000
     25      -4.5464      1.00000
     26      -4.2910      1.00000
     27      -4.2071      1.00000
     28      -3.9091      1.00000
     29      -3.8713      1.00000
     30      -3.7765      1.00000
     31      -3.6343      1.00000
     32      -3.5779      1.00000
     33      -3.5237      1.00000
     34      -3.4931      1.00000
     35      -3.3986      1.00000
     36      -3.2415      1.00000
     37      -3.2107      1.00000
     38      -3.1142      1.00000
     39      -3.0233      1.00000
     40      -2.7501      1.00000
     41      -0.5006      1.00000
     42      -0.3008      1.00000
     43      -0.2161      1.00000
     44      -0.0828      1.00000
     45       0.0239      1.00000
     46       0.0770      1.00000
     47       0.5146      1.00000
     48       0.6414      1.00000
     49       0.8252      1.00000
     50       0.8410      1.00000
     51       0.9119      1.00000
     52       1.0168      0.99979
     53       1.0799      0.99778
     54       1.1105      0.99314
     55       1.5151      0.00004
     56       1.7695      0.00000
     57       2.1808      0.00000
     58       2.2095      0.00000
     59       3.2547      0.00000
     60       3.4832      0.00000
     61       5.1113      0.00000
     62       7.8523      0.00000
     63       8.1631      0.00000
     64       8.4822      0.00000

 k-point     3 :       0.5000    0.0000   -0.0000
  band No.  band energies     occupation 
      1     -23.0460      1.00000
      2     -23.0448      1.00000
      3     -22.8138      1.00000
      4     -22.7911      1.00000
      5     -22.6790      1.00000
      6     -22.6754      1.00000
      7     -22.5334      1.00000
      8     -22.5197      1.00000
      9     -22.4933      1.00000
     10     -22.4635      1.00000
     11      -6.2156      1.00000
     12      -6.2107      1.00000
     13      -5.9229      1.00000
     14      -5.8991      1.00000
     15      -5.7055      1.00000
     16      -5.6076      1.00000
     17      -5.5221      1.00000
     18      -5.4514      1.00000
     19      -5.3614      1.00000
     20      -5.3022      1.00000
     21      -4.9435      1.00000
     22      -4.9077      1.00000
     23      -4.7046      1.00000
     24      -4.6638      1.00000
     25      -4.5690      1.00000
     26      -4.5534      1.00000
     27      -4.1188      1.00000
     28      -4.0951      1.00000
     29      -3.9298      1.00000
     30      -3.9020      1.00000
     31      -3.6593      1.00000
     32      -3.5997      1.00000
     33      -3.5991      1.00000
     34      -3.5575      1.00000
     35      -3.5557      1.00000
     36      -3.3058      1.00000
     37      -3.0582      1.00000
     38      -3.0566      1.00000
     39      -2.9029      1.00000
     40      -2.8576      1.00000
     41      -0.2265      1.00000
     42      -0.2236      1.00000
     43      -0.0594      1.00000
     44      -0.0459      1.00000
     45      -0.0274      1.00000
     46      -0.0234      1.00000
     47       0.5892      1.00000
     48       0.5903      1.00000
     49       0.8902      1.00000
     50       0.8910      1.00000
     51       0.9492      0.99998
     52       0.9602      0.99997
     53       1.0845      0.99737
     54       1.1008      0.99519
     55       1.8501      0.00000
     56       1.8700      0.00000
     57       2.1097      0.00000
     58       2.1473      0.00000
     59       3.1140      0.00000
     60       3.1197      0.00000
     61       6.2830      0.00000
     62       6.4966      0.00000
     63       8.0260      0.00000
     64       8.4853      0.00000

 k-point     4 :      -0.2500   -0.0000    0.0000
  band No.  band energies     occupation 
      1     -23.1839      1.00000
      2     -22.9083      1.00000
      3     -22.8186      1.00000
      4     -22.7789      1.00000
      5     -22.7039      1.00000
      6     -22.6571      1.00000
      7     -22.5877      1.00000
      8     -22.5447      1.00000
      9     -22.4497      1.00000
     10     -22.4201      1.00000
     11      -6.4505      1.00000
     12      -6.3753      1.00000
     13      -6.1211      1.00000
     14      -5.9591      1.00000
     15      -5.9085      1.00000
     16      -5.4523      1.00000
     17      -5.4008      1.00000
     18      -5.2734      1.00000
     19      -5.2461      1.00000
     20      -5.2039      1.00000
     21      -5.1040      1.00000
     22      -4.8256      1.00000
     23      -4.7973      1.00000
     24      -4.6324      1.00000
     25      -4.5464      1.00000
     26      -4.2910      1.00000
     27      -4.2071      1.00000
     28      -3.9091      1.00000
     29      -3.8713      1.00000
     30      -3.7765      1.00000
     31      -3.6343      1.00000
     32      -3.5779      1.00000
     33      -3.5237      1.00000
     34      -3.4931      1.00000
     35      -3.3986      1.00000
     36      -3.2415      1.00000
     37      -3.2107      1.00000
     38      -3.1142      1.00000
     39      -3.0233      1.00000
     40      -2.7501      1.00000
     41      -0.5006      1.00000
     42      -0.3008      1.00000
     43      -0.2161      1.00000
     44      -0.0828      1.00000
     45       0.0239      1.00000
     46       0.0770      1.00000
     47       0.5146      1.00000
     48       0.6414      1.00000
     49       0.8252      1.00000
     50       0.8410      1.00000
     51       0.9119      1.00000
     52       1.0168      0.99979
     53       1.0799      0.99778
     54       1.1105      0.99314
     55       1.5151      0.00004
     56       1.7695      0.00000
     57       2.1808      0.00000
     58       2.2095      0.00000
     59       3.2547      0.00000
     60       3.4832      0.00000
     61       5.1113      0.00000
     62       7.8523      0.00000
     63       8.1630      0.00000
     64       8.4823      0.00000

 k-point     5 :      -0.0000    0.2500    0.0000
  band No.  band energies     occupation 
      1     -23.1839      1.00000
      2     -22.9082      1.00000
      3     -22.8186      1.00000
      4     -22.7789      1.00000
      5     -22.7039      1.00000
      6     -22.6571      1.00000
      7     -22.5879      1.00000
      8     -22.5446      1.00000
      9     -22.4498      1.00000
     10     -22.4200      1.00000
     11      -6.4505      1.00000
     12      -6.3752      1.00000
     13      -6.1212      1.00000
     14      -5.9591      1.00000
     15      -5.9084      1.00000
     16      -5.4526      1.00000
     17      -5.4005      1.00000
     18      -5.2730      1.00000
     19      -5.2463      1.00000
     20      -5.2038      1.00000
     21      -5.1042      1.00000
     22      -4.8258      1.00000
     23      -4.7966      1.00000
     24      -4.6324      1.00000
     25      -4.5466      1.00000
     26      -4.2909      1.00000
     27      -4.2074      1.00000
     28      -3.9088      1.00000
     29      -3.8716      1.00000
     30      -3.7759      1.00000
     31      -3.6340      1.00000
     32      -3.5782      1.00000
     33      -3.5237      1.00000
     34      -3.4936      1.00000
     35      -3.3981      1.00000
     36      -3.2419      1.00000
     37      -3.2107      1.00000
     38      -3.1141      1.00000
     39      -3.0237      1.00000
     40      -2.7506      1.00000
     41      -0.5006      1.00000
     42      -0.3008      1.00000
     43      -0.2161      1.00000
     44      -0.0827      1.00000
     45       0.0239      1.00000
     46       0.0771      1.00000
     47       0.5146      1.00000
     48       0.6415      1.00000
     49       0.8253      1.00000
     50       0.8410      1.00000
     51       0.9118      1.00000
     52       1.0168      0.99979
     53       1.0800      0.99777
     54       1.1103      0.99320
     55       1.5150      0.00004
     56       1.7696      0.00000
     57       2.1807      0.00000
     58       2.2095      0.00000
     59       3.2548      0.00000
     60       3.4832      0.00000
     61       5.1114      0.00000
     62       7.8521      0.00000
     63       8.1632      0.00000
     64       8.4822      0.00000

 k-point     6 :       0.2500    0.2500    0.0000
  band No.  band energies     occupation 
      1     -23.1079      1.00000
      2     -22.9993      1.00000
      3     -22.8203      1.00000
      4     -22.7892      1.00000
      5     -22.6801      1.00000
      6     -22.6745      1.00000
      7     -22.6049      1.00000
      8     -22.5496      1.00000
      9     -22.4206      1.00000
     10     -22.4065      1.00000
     11      -6.4382      1.00000
     12      -6.2884      1.00000
     13      -6.1704      1.00000
     14      -5.9664      1.00000
     15      -5.8852      1.00000
     16      -5.8839      1.00000
     17      -5.3786      1.00000
     18      -5.3457      1.00000
     19      -5.2986      1.00000
     20      -5.0593      1.00000
     21      -4.9896      1.00000
     22      -4.6595      1.00000
     23      -4.6523      1.00000
     24      -4.5936      1.00000
     25      -4.5073      1.00000
     26      -4.2062      1.00000
     27      -4.1454      1.00000
     28      -4.1143      1.00000
     29      -3.8577      1.00000
     30      -3.7263      1.00000
     31      -3.6930      1.00000
     32      -3.6526      1.00000
     33      -3.4693      1.00000
     34      -3.4034      1.00000
     35      -3.3990      1.00000
     36      -3.2788      1.00000
     37      -3.2159      1.00000
     38      -3.1619      1.00000
     39      -3.0967      1.00000
     40      -2.7346      1.00000
     41      -0.3940      1.00000
     42      -0.2365      1.00000
     43      -0.2265      1.00000
     44      -0.2117      1.00000
     45      -0.1306      1.00000
     46       0.0523      1.00000
     47       0.5616      1.00000
     48       0.5764      1.00000
     49       0.8059      1.00000
     50       0.8133      1.00000
     51       0.9707      0.99996
     52       1.1087      0.99357
     53       1.1306      0.98565
     54       1.1320      0.98491
     55       1.6262      0.00000
     56       1.7864      0.00000
     57       1.9970      0.00000
     58       2.0398      0.00000
     59       3.0922      0.00000
     60       3.6521      0.00000
     61       5.5930      0.00000
     62       7.7558      0.00000
     63       7.8797      0.00000
     64       8.6019      0.00000

 k-point     7 :       0.5000    0.2500   -0.0000
  band No.  band energies     occupation 
      1     -23.1005      1.00000
      2     -22.9772      1.00000
      3     -22.8463      1.00000
      4     -22.7710      1.00000
      5     -22.7011      1.00000
      6     -22.6626      1.00000
      7     -22.5786      1.00000
      8     -22.5265      1.00000
      9     -22.4650      1.00000
     10     -22.4281      1.00000
     11      -6.4774      1.00000
     12      -6.2494      1.00000
     13      -6.1723      1.00000
     14      -6.1145      1.00000
     15      -5.8475      1.00000
     16      -5.4695      1.00000
     17      -5.4004      1.00000
     18      -5.3170      1.00000
     19      -5.1378      1.00000
     20      -5.0208      1.00000
     21      -4.9681      1.00000
     22      -4.8727      1.00000
     23      -4.7603      1.00000
     24      -4.5906      1.00000
     25      -4.5156      1.00000
     26      -4.3613      1.00000
     27      -4.2573      1.00000
     28      -3.9682      1.00000
     29      -3.8956      1.00000
     30      -3.7457      1.00000
     31      -3.6867      1.00000
     32      -3.6279      1.00000
     33      -3.5389      1.00000
     34      -3.4749      1.00000
     35      -3.4118      1.00000
     36      -3.3316      1.00000
     37      -3.1994      1.00000
     38      -3.1758      1.00000
     39      -3.0638      1.00000
     40      -2.7785      1.00000
     41      -0.5068      1.00000
     42      -0.2983      1.00000
     43      -0.2656      1.00000
     44       0.0094      1.00000
     45       0.0244      1.00000
     46       0.0702      1.00000
     47       0.4997      1.00000
     48       0.6343      1.00000
     49       0.8413      1.00000
     50       0.8929      1.00000
     51       0.9588      0.99997
     52       1.0058      0.99986
     53       1.0343      0.99959
     54       1.1242      0.98865
     55       1.4904      0.00011
     56       1.7540      0.00000
     57       2.0132      0.00000
     58       2.5548      0.00000
     59       2.9061      0.00000
     60       3.4814      0.00000
     61       6.6694      0.00000
     62       6.9272      0.00000
     63       7.7209      0.00000
     64       8.5966      0.00000

 k-point     8 :      -0.2500    0.2500   -0.0000
  band No.  band energies     occupation 
      1     -23.1745      1.00000
      2     -22.8826      1.00000
      3     -22.8433      1.00000
      4     -22.7697      1.00000
      5     -22.7155      1.00000
      6     -22.6543      1.00000
      7     -22.5208      1.00000
      8     -22.5169      1.00000
      9     -22.5099      1.00000
     10     -22.4694      1.00000
     11      -6.6146      1.00000
     12      -6.2999      1.00000
     13      -6.0973      1.00000
     14      -5.7460      1.00000
     15      -5.5500      1.00000
     16      -5.5034      1.00000
     17      -5.4070      1.00000
     18      -5.2941      1.00000
     19      -5.2339      1.00000
     20      -5.2292      1.00000
     21      -5.0700      1.00000
     22      -5.0323      1.00000
     23      -4.8734      1.00000
     24      -4.7908      1.00000
     25      -4.6763      1.00000
     26      -4.2966      1.00000
     27      -3.9554      1.00000
     28      -3.9529      1.00000
     29      -3.7561      1.00000
     30      -3.7390      1.00000
     31      -3.6245      1.00000
     32      -3.5665      1.00000
     33      -3.5326      1.00000
     34      -3.5118      1.00000
     35      -3.4783      1.00000
     36      -3.4068      1.00000
     37      -3.3380      1.00000
     38      -3.1336      1.00000
     39      -2.8941      1.00000
     40      -2.8680      1.00000
     41      -0.6376      1.00000
     42      -0.2598      1.00000
     43      -0.0583      1.00000
     44      -0.0431      1.00000
     45       0.0443      1.00000
     46       0.1277      1.00000
     47       0.4774      1.00000
     48       0.6673      1.00000
     49       0.8595      1.00000
     50       0.8667      1.00000
     51       0.9230      0.99999
     52       0.9538      0.99998
     53       1.0038      0.99987
     54       1.0475      0.99933
     55       1.3449      0.02391
     56       1.9824      0.00000
     57       2.1006      0.00000
     58       2.7089      0.00000
     59       3.1050      0.00000
     60       3.2050      0.00000
     61       5.6211      0.00000
     62       7.8645      0.00000
     63       8.0479      0.00000
     64       8.3264      0.00000

 k-point     9 :      -0.0000    0.5000   -0.0000
  band No.  band energies     occupation 
      1     -23.0462      1.00000
      2     -23.0446      1.00000
      3     -22.8138      1.00000
      4     -22.7912      1.00000
      5     -22.6789      1.00000
      6     -22.6755      1.00000
      7     -22.5336      1.00000
      8     -22.5198      1.00000
      9     -22.4931      1.00000
     10     -22.4636      1.00000
     11      -6.2153      1.00000
     12      -6.2105      1.00000
     13      -5.9233      1.00000
     14      -5.8990      1.00000
     15      -5.7059      1.00000
     16      -5.6059      1.00000
     17      -5.5227      1.00000
     18      -5.4524      1.00000
     19      -5.3608      1.00000
     20      -5.3017      1.00000
     21      -4.9433      1.00000
     22      -4.9079      1.00000
     23      -4.7033      1.00000
     24      -4.6649      1.00000
     25      -4.5691      1.00000
     26      -4.5540      1.00000
     27      -4.1182      1.00000
     28      -4.0957      1.00000
     29      -3.9294      1.00000
     30      -3.9011      1.00000
     31      -3.6587      1.00000
     32      -3.5999      1.00000
     33      -3.5993      1.00000
     34      -3.5575      1.00000
     35      -3.5562      1.00000
     36      -3.3064      1.00000
     37      -3.0580      1.00000
     38      -3.0572      1.00000
     39      -2.9031      1.00000
     40      -2.8587      1.00000
     41      -0.2261      1.00000
     42      -0.2240      1.00000
     43      -0.0600      1.00000
     44      -0.0453      1.00000
     45      -0.0281      1.00000
[...]
     60       5.6697      0.00000
     61       7.6063      0.00000
     62       7.8294      0.00000
     63       8.6202      0.00000
     64       9.4699      0.00000

 k-point    64 :      -0.2500   -0.2500   -0.2500
  band No.  band energies     occupation 
      1     -23.0300      1.00000
      2     -22.9516      1.00000
      3     -22.8202      1.00000
      4     -22.7271      1.00000
      5     -22.6637      1.00000
      6     -22.6602      1.00000
      7     -22.5274      1.00000
      8     -22.4991      1.00000
      9     -22.3904      1.00000
     10     -22.3403      1.00000
     11      -6.3250      1.00000
     12      -5.9801      1.00000
     13      -5.8444      1.00000
     14      -5.6559      1.00000
     15      -5.5350      1.00000
     16      -5.3649      1.00000
     17      -5.2090      1.00000
     18      -4.9753      1.00000
     19      -4.9341      1.00000
     20      -4.7508      1.00000
     21      -4.7388      1.00000
     22      -4.7223      1.00000
     23      -4.5373      1.00000
     24      -4.4371      1.00000
     25      -4.3475      1.00000
     26      -4.0569      1.00000
     27      -4.0049      1.00000
     28      -3.9061      1.00000
     29      -3.6721      1.00000
     30      -3.6551      1.00000
     31      -3.4666      1.00000
     32      -3.4277      1.00000
     33      -3.3616      1.00000
     34      -3.2358      1.00000
     35      -3.1902      1.00000
     36      -3.1271      1.00000
     37      -3.0306      1.00000
     38      -2.9843      1.00000
     39      -2.9566      1.00000
     40      -2.6594      1.00000
     41       2.5722      0.00000
     42       2.6104      0.00000
     43       2.7629      0.00000
     44       2.8823      0.00000
     45       2.8842      0.00000
     46       3.0037      0.00000
     47       3.4937      0.00000
     48       3.6617      0.00000
     49       3.7927      0.00000
     50       4.1592      0.00000
     51       4.2089      0.00000
     52       4.2402      0.00000
     53       4.3130      0.00000
     54       4.3979      0.00000
     55       4.4073      0.00000
     56       4.5459      0.00000
     57       4.5597      0.00000
     58       4.6044      0.00000
     59       5.2853      0.00000
     60       5.8233      0.00000
     61       7.3481      0.00000
     62       7.5287      0.00000
     63       8.8924      0.00000
     64       9.0129      0.00000


--------------------------------------------------------------------------------------------------------


 soft charge-density along one line, spin component           1
         0         1         2         3         4         5         6         7         8         9
 total charge-density along one line
 
 soft charge-density along one line, spin component           2
         0         1         2         3         4         5         6         7         8         9
 total charge-density along one line
 
 pseudopotential strength for first ion, spin component:           1
 -6.394   0.030  -0.037   0.015  -0.018  -6.815   0.029  -0.035
  0.030  -6.522   0.011   0.097  -0.041   0.029  -6.941   0.011
 -0.037   0.011  -6.459  -0.028   0.011  -0.035   0.011  -6.878
  0.015   0.097  -0.028  -6.558   0.038   0.014   0.094  -0.028
 -0.018  -0.041   0.011   0.038  -6.444  -0.018  -0.040   0.010
 -6.815   0.029  -0.035   0.014  -0.018  -7.198   0.029  -0.032
  0.029  -6.941   0.011   0.094  -0.040   0.029  -7.321   0.010
 -0.035   0.011  -6.878  -0.028   0.010  -0.032   0.010  -7.257
  0.014   0.094  -0.028  -6.975   0.037   0.013   0.092  -0.028
 -0.018  -0.040   0.010   0.037  -6.865  -0.017  -0.039   0.009
 -0.027  -0.010   0.017  -0.009   0.008  -0.026  -0.010   0.016
 -0.052  -0.020   0.033  -0.017   0.016  -0.050  -0.019   0.032
 -0.000  -0.000  -0.000   0.000  -0.000  -0.000  -0.000  -0.000
  0.000   0.000  -0.000  -0.000  -0.000   0.000   0.000  -0.000
  0.000   0.000   0.000  -0.000  -0.000   0.000   0.000   0.000
 -0.000  -0.000  -0.000   0.000  -0.000  -0.000  -0.000  -0.000
  0.000   0.000  -0.000  -0.000  -0.000   0.000   0.000  -0.000
  0.000   0.000   0.000  -0.000  -0.000   0.000   0.000   0.000
 pseudopotential strength for first ion, spin component:           2
 -4.413   0.039  -0.211   0.076   0.021  -4.899   0.038  -0.205
  0.039  -4.457   0.040   0.119  -0.049   0.038  -4.940   0.038
 -0.211   0.040  -4.658   0.070   0.057  -0.205   0.038  -5.137
  0.076   0.119   0.070  -4.536   0.033   0.074   0.114   0.069
  0.021  -0.049   0.057   0.033  -4.359   0.021  -0.047   0.055
 -4.899   0.038  -0.205   0.074   0.021  -5.344   0.036  -0.199
  0.038  -4.940   0.038   0.114  -0.047   0.036  -5.383   0.037
 -0.205   0.038  -5.137   0.069   0.055  -0.199   0.037  -5.575
  0.074   0.114   0.069  -5.016   0.032   0.072   0.109   0.067
  0.021  -0.047   0.055   0.032  -4.846   0.021  -0.045   0.053
 -0.076  -0.029   0.044  -0.021   0.025  -0.077  -0.030   0.044
 -0.152  -0.058   0.087  -0.042   0.051  -0.153  -0.058   0.087
 -0.000  -0.000  -0.000   0.000  -0.000  -0.000  -0.000  -0.000
  0.000   0.000  -0.000  -0.000   0.000   0.000   0.000  -0.000
  0.000   0.000   0.000  -0.000  -0.000   0.000   0.000   0.000
 -0.000  -0.000  -0.000   0.000  -0.000  -0.000  -0.000  -0.000
  0.000   0.000  -0.000  -0.000   0.000   0.000   0.000  -0.000
  0.000   0.000   0.000  -0.000  -0.000   0.000   0.000   0.000
 total augmentation occupancy for first ion, spin component:           1
  1.000   0.000   0.000   0.000   0.000   0.000   0.000   0.000   0.000   0.000   0.000   0.000   0.000   0.000   0.000   0.000
  0.000   1.000   0.000   0.000   0.000   0.000   0.000   0.000   0.000   0.000   0.000   0.000   0.000   0.000   0.000   0.000
  0.000   0.000   1.000   0.000   0.000   0.000   0.000   0.000   0.000   0.000   0.000   0.000   0.000   0.000   0.000   0.000
  0.000   0.000   0.000   1.000   0.000   0.000   0.000   0.000   0.000   0.000   0.000   0.000   0.000   0.000   0.000   0.000
  0.000   0.000   0.000   0.000   1.000   0.000   0.000   0.000   0.000   0.000   0.000   0.000   0.000   0.000   0.000   0.000
  0.000   0.000   0.000   0.000   0.000   0.000   0.000   0.000   0.000   0.000   0.000   0.000   0.000   0.000   0.000   0.000
  0.000   0.000   0.000   0.000   0.000   0.000   0.000   0.000   0.000   0.000   0.000   0.000   0.000   0.000   0.000   0.000
  0.000   0.000   0.000   0.000   0.000   0.000   0.000   0.000   0.000   0.000   0.000   0.000   0.000   0.000   0.000   0.000
  0.000   0.000   0.000   0.000   0.000   0.000   0.000   0.000   0.000   0.000   0.000   0.000   0.000   0.000   0.000   0.000
  0.000   0.000   0.000   0.000   0.000   0.000   0.000   0.000   0.000   0.000   0.000   0.000   0.000   0.000   0.000   0.000
  0.000   0.000   0.000   0.000   0.000   0.000   0.000   0.000   0.000   0.000   1.000   0.000   0.000   0.000   0.000   0.000
  0.000   0.000   0.000   0.000   0.000   0.000   0.000   0.000   0.000   0.000   0.000   0.000   0.000   0.000   0.000   0.000
  0.000   0.000   0.000   0.000   0.000   0.000   0.000   0.000   0.000   0.000   0.000   0.000   0.000   0.000   0.000   0.000
  0.000   0.000   0.000   0.000   0.000   0.000   0.000   0.000   0.000   0.000   0.000   0.000   0.000   0.000   0.000   0.000
  0.000   0.000   0.000   0.000   0.000   0.000   0.000   0.000   0.000   0.000   0.000   0.000   0.000   0.000   0.000   0.000
  0.000   0.000   0.000   0.000   0.000   0.000   0.000   0.000   0.000   0.000   0.000   0.000   0.000   0.000   0.000   0.000
  0.000   0.000   0.000   0.000   0.000   0.000   0.000   0.000   0.000   0.000   0.000   0.000   0.000   0.000   0.000   0.000
  0.000   0.000   0.000   0.000   0.000   0.000   0.000   0.000   0.000   0.000   0.000   0.000   0.000   0.000   0.000   0.000
 total augmentation occupancy for first ion, spin component:           2
  0.667   0.000   0.000   0.000   0.000   0.000   0.000   0.000   0.000   0.000   0.000   0.000   0.000   0.000   0.000   0.000
  0.000   0.667   0.000   0.000   0.000   0.000   0.000   0.000   0.000   0.000   0.000   0.000   0.000   0.000   0.000   0.000
  0.000   0.000   0.667   0.000   0.000   0.000   0.000   0.000   0.000   0.000   0.000   0.000   0.000   0.000   0.000   0.000
  0.000   0.000   0.000   0.667   0.000   0.000   0.000   0.000   0.000   0.000   0.000   0.000   0.000   0.000   0.000   0.000
  0.000   0.000   0.000   0.000   0.667   0.000   0.000   0.000   0.000   0.000   0.000   0.000   0.000   0.000   0.000   0.000
  0.000   0.000   0.000   0.000   0.000   0.000   0.000   0.000   0.000   0.000   0.000   0.000   0.000   0.000   0.000   0.000
  0.000   0.000   0.000   0.000   0.000   0.000   0.000   0.000   0.000   0.000   0.000   0.000   0.000   0.000   0.000   0.000
  0.000   0.000   0.000   0.000   0.000   0.000   0.000   0.000   0.000   0.000   0.000   0.000   0.000   0.000   0.000   0.000
  0.000   0.000   0.000   0.000   0.000   0.000   0.000   0.000   0.000   0.000   0.000   0.000   0.000   0.000   0.000   0.000
  0.000   0.000   0.000   0.000   0.000   0.000   0.000   0.000   0.000   0.000   0.000   0.000   0.000   0.000   0.000   0.000
  0.000   0.000   0.000   0.000   0.000   0.000   0.000   0.000   0.000   0.000   0.667   0.000   0.000   0.000   0.000   0.000
  0.000   0.000   0.000   0.000   0.000   0.000   0.000   0.000   0.000   0.000   0.000   0.000   0.000   0.000   0.000   0.000
  0.000   0.000   0.000   0.000   0.000   0.000   0.000   0.000   0.000   0.000   0.000   0.000   0.000   0.000   0.000   0.000
  0.000   0.000   0.000   0.000   0.000   0.000   0.000   0.000   0.000   0.000   0.000   0.000   0.000   0.000   0.000   0.000
  0.000   0.000   0.000   0.000   0.000   0.000   0.000   0.000   0.000   0.000   0.000   0.000   0.000   0.000   0.000   0.000
  0.000   0.000   0.000   0.000   0.000   0.000   0.000   0.000   0.000   0.000   0.000   0.000   0.000   0.000   0.000   0.000
  0.000   0.000   0.000   0.000   0.000   0.000   0.000   0.000   0.000   0.000   0.000   0.000   0.000   0.000   0.000   0.000
  0.000   0.000   0.000   0.000   0.000   0.000   0.000   0.000   0.000   0.000   0.000   0.000   0.000   0.000   0.000   0.000


------------------------ aborting loop because EDIFF is reached ----------------------------------------





 total charge

# of ion       s       p       d       tot
------------------------------------------
    1        0.269   0.367   4.159   4.796
    2        0.338   0.582   4.200   5.120
    3        0.338   0.582   4.200   5.119
    4        0.270   0.368   4.159   4.796
    5        1.728   4.367   0.000   6.095
    6        1.730   4.355   0.000   6.086
    7        1.730   4.365   0.000   6.095
    8        1.730   4.355   0.000   6.086
    9        1.728   4.367   0.000   6.095
   10        1.728   4.367   0.000   6.095
   11        1.730   4.355   0.000   6.086
   12        1.730   4.365   0.000   6.095
   13        1.730   4.355   0.000   6.086
   14        1.728   4.367   0.000   6.095
--------------------------------------------------
tot         18.509  45.518  16.718  80.746



 magnetization (x)

# of ion       s       p       d       tot
------------------------------------------
    1        0.056   0.021   3.516   3.594
    2        0.015   0.023   2.986   3.024
    3        0.015   0.023   2.986   3.024
    4        0.056   0.021   3.516   3.593
    5        0.000   0.017   0.000   0.017
    6        0.003   0.002   0.000   0.005
    7        0.002   0.018   0.000   0.019
    8        0.003   0.002   0.000   0.005
    9        0.000   0.017   0.000   0.017
   10        0.000   0.017   0.000   0.017
   11        0.003   0.002   0.000   0.005
   12        0.002   0.017   0.000   0.019
   13        0.003   0.002   0.000   0.005
   14        0.000   0.017   0.000   0.017
--------------------------------------------------
tot          0.158   0.200  13.004  13.362
 
    CHARGE:  cpu time      0.2397: real time      0.2429
    FORLOC:  cpu time      0.0016: real time      0.0023
    FORNL :  cpu time      1.0827: real time      1.0861
    FORCOR:  cpu time      0.3406: real time      0.3422
    FORHAR:  cpu time      0.0089: real time      0.0110
    OFIELD:  cpu time      0.0004: real time      0.0009

 VOLUME and BASIS-vectors are now :
 -----------------------------------------------------------------------------
  energy-cutoff  :      600.00
  volume of cell :      191.44
      direct lattice vectors                 reciprocal lattice vectors
     5.556037718  0.290534409  0.132275360     0.178420420 -0.006075064  0.079035350
     0.129837541  5.561800485  0.134403458    -0.011198775  0.178147880  0.079098089
    -2.787488731 -2.871207633  6.071993649    -0.003638915 -0.003810958  0.161217974

  length of vectors
     5.565200997  5.564939058  7.272072165     0.195236624  0.195239820  0.161304061


 FORCES acting on ions
    electron-ion (+dipol)            ewald-force                    non-local-force                 convergence-correction
 -----------------------------------------------------------------------------------------------
   -.580E-01 0.351E-01 -.162E-01   0.579E-01 -.356E-01 0.168E-01   0.275E-02 -.213E-02 -.217E-04   0.150E-02 0.875E-04 0.608E-03
   0.103E-01 0.523E-02 0.236E-02   -.130E-01 -.304E-02 -.328E-02   -.587E-03 -.224E-03 -.152E-03   0.800E-03 0.496E-03 0.459E-03
   -.305E-01 -.160E-01 -.794E-04   0.288E-01 0.181E-01 0.570E-03   0.188E-02 0.668E-03 0.202E-03   0.123E-02 -.433E-03 0.105E-03
   -.368E-01 0.531E-01 0.126E-01   0.359E-01 -.527E-01 -.124E-01   0.249E-02 -.355E-02 -.203E-03   0.549E-03 -.301E-03 -.379E-03
   0.165E+02 -.523E+02 -.138E+02   -.912E+01 0.585E+02 0.202E+02   -.558E+01 -.796E+01 -.644E+01   -.187E+01 0.181E+01 0.873E-02
   0.756E+02 0.275E+02 0.475E+01   -.844E+02 -.314E+02 -.126E+02   0.102E+02 0.531E+01 0.621E+01   -.145E+01 -.144E+01 0.168E+01
   -.564E+02 0.548E+02 0.353E-01   0.639E+02 -.620E+02 -.334E-01   -.819E+01 0.795E+01 0.556E-03   0.782E+00 -.761E+00 -.257E-02
   -.249E+02 -.766E+02 -.466E+01   0.286E+02 0.856E+02 0.125E+02   -.499E+01 -.104E+02 -.622E+01   0.140E+01 0.148E+01 -.167E+01
   0.528E+02 -.149E+02 0.137E+02   -.587E+02 0.729E+01 -.201E+02   0.784E+01 0.585E+01 0.637E+01   -.187E+01 0.181E+01 0.482E-02
   -.527E+02 0.149E+02 -.137E+02   0.587E+02 -.719E+01 0.201E+02   -.783E+01 -.587E+01 -.637E+01   0.187E+01 -.181E+01 -.362E-02
   0.249E+02 0.767E+02 0.463E+01   -.286E+02 -.856E+02 -.125E+02   0.498E+01 0.104E+02 0.621E+01   -.139E+01 -.149E+01 0.167E+01
   0.564E+02 -.548E+02 -.183E-01   -.639E+02 0.620E+02 0.156E-01   0.819E+01 -.796E+01 0.550E-02   -.779E+00 0.769E+00 -.402E-02
   -.756E+02 -.274E+02 -.474E+01   0.844E+02 0.314E+02 0.126E+02   -.102E+02 -.531E+01 -.621E+01   0.145E+01 0.143E+01 -.168E+01
   -.165E+02 0.523E+02 0.138E+02   0.905E+01 -.584E+02 -.202E+02   0.559E+01 0.796E+01 0.645E+01   0.186E+01 -.182E+01 -.776E-02
 -----------------------------------------------------------------------------------------------
   -.253E-01 0.183E-01 0.109E-02   0.249E-13 -.497E-13 -.107E-13   0.299E-01 -.220E-01 -.881E-03   -.555E-02 0.461E-02 -.106E-03
 
 
 POSITION                                       TOTAL-FORCE (eV/Angst)
 -----------------------------------------------------------------------------------
     -0.00959     -2.72582      6.13811         0.004300     -0.002618      0.001248
      0.06502      2.78082      0.06722        -0.002409      0.002398     -0.000615
      1.51406      4.27138      3.23651         0.001402      0.002348      0.000790
      4.22712      1.63597      3.23547         0.002223     -0.003531     -0.000347
      4.54150      4.65483      0.45868        -0.015800      0.018386      0.013628
      4.35489      2.02987      1.28622        -0.067113     -0.076538      0.029705
      1.13685      3.18861      1.65175         0.011147     -0.010496     -0.000196
      2.38634      0.00705      2.01527         0.073933      0.068383     -0.029776
     -0.23150     -0.25853      2.84661        -0.016391      0.013122     -0.012492
      3.12992      3.23953      3.49214         0.013483     -0.009530      0.013119
      0.51211      2.97412      4.32340        -0.074314     -0.069672      0.030302
      1.76156     -0.20743      4.68691        -0.009879      0.010638     -0.001282
     -1.45649      0.95125      5.05245         0.067177      0.075881     -0.029812
     -1.64299     -1.67375      5.87997         0.012241     -0.018769     -0.014273
 -----------------------------------------------------------------------------------
    total drift:                               -0.000952      0.000882      0.000107


--------------------------------------------------------------------------------------------------------



  FREE ENERGIE OF THE ION-ELECTRON SYSTEM (eV)
  ---------------------------------------------------
  free  energy   TOTEN  =       -86.29254452 eV

  energy  without entropy=      -86.28828396  energy(sigma->0) =      -86.29041424
 


--------------------------------------------------------------------------------------------------------


    POTLOK:  cpu time      0.3495: real time      0.3509


--------------------------------------------------------------------------------------------------------


 writing wavefunctions
     LOOP+:  cpu time    106.0197: real time    107.2871
    4ORBIT:  cpu time      0.0000: real time      0.0000



 total charge

# of ion       s       p       d       tot
------------------------------------------
    1        0.269   0.367   4.159   4.796
    2        0.338   0.582   4.200   5.120
    3        0.338   0.582   4.200   5.119
    4        0.270   0.368   4.159   4.796
    5        1.728   4.367   0.000   6.095
    6        1.730   4.355   0.000   6.086
    7        1.730   4.365   0.000   6.095
    8        1.730   4.355   0.000   6.086
    9        1.728   4.367   0.000   6.095
   10        1.728   4.367   0.000   6.095
   11        1.730   4.355   0.000   6.086
   12        1.730   4.365   0.000   6.095
   13        1.730   4.355   0.000   6.086
   14        1.728   4.367   0.000   6.095
--------------------------------------------------
tot         18.509  45.518  16.718  80.746



 magnetization (x)

# of ion       s       p       d       tot
------------------------------------------
    1        0.056   0.021   3.516   3.594
    2        0.015   0.023   2.986   3.024
    3        0.015   0.023   2.986   3.024
    4        0.056   0.021   3.516   3.593
    5        0.000   0.017   0.000   0.017
    6        0.003   0.002   0.000   0.005
    7        0.002   0.018   0.000   0.019
    8        0.003   0.002   0.000   0.005
    9        0.000   0.017   0.000   0.017
   10        0.000   0.017   0.000   0.017
   11        0.003   0.002   0.000   0.005
   12        0.002   0.017   0.000   0.019
   13        0.003   0.002   0.000   0.005
   14        0.000   0.017   0.000   0.017
--------------------------------------------------
tot          0.158   0.200  13.004  13.362
 

 total amount of memory used by VASP MPI-rank0    79397. kBytes
=======================================================================

   base      :      30000. kBytes
   nonlr-proj:       2942. kBytes
   fftplans  :       1003. kBytes
   grid      :       2563. kBytes
   one-center:         31. kBytes
   wavefun   :      42858. kBytes
 
  
  
 General timing and accounting informations for this job:
 ========================================================
  
                  Total CPU time used (sec):      123.427
                            User time (sec):      111.112
                          System time (sec):       12.315
                         Elapsed time (sec):      126.849
  
                   Maximum memory used (kb):      254956.
                   Average memory used (kb):          N/A
  
                          Minor page faults:        56220
                          Major page faults:           44
                 Voluntary context switches:        10195
